{
  "agent": "MaterialsFramework",
  "status": "ok",
  "wildfire_context": {
    "region": "EUROPE",
    "slope_mean_deg": 10.0
  },
  "candidates_top3": [
    {
      "material_id": "mp-42831",
      "formula": "MgO",
      "density": 2.92,
      "formation_energy_per_atom": -5.174
    },
    {
      "material_id": "mp-85546",
      "formula": "Fe2O3",
      "density": 3.11,
      "formation_energy_per_atom": -2.511
    },
    {
      "material_id": "mp-86939",
      "formula": "CaCO3",
      "density": 4.65,
      "formation_energy_per_atom": -4.674
    }
  ],
  "timestamp": "2025-11-04T17:26:14+00:00"
}